<VTKFile type='UnstructuredGrid' version='0.1' byte_order='BigEndian'> 
<UnstructuredGrid> 
<Piece NumberOfPoints='   100 ' NumberOfCells='    99 '> 
<Points> 
<DataArray type='Float32' NumberOfComponents='3' Format='ascii'> 
1.000000e+00 1.000000e+00 1.000000e-02 
1.000000e+00 1.000000e+00 3.010101e-02 
1.000000e+00 1.000000e+00 5.020202e-02 
1.000000e+00 1.000000e+00 7.030303e-02 
1.000000e+00 1.000000e+00 9.040404e-02 
1.000000e+00 1.000000e+00 1.105051e-01 
1.000000e+00 1.000000e+00 1.306061e-01 
1.000000e+00 1.000000e+00 1.507071e-01 
1.000000e+00 1.000000e+00 1.708081e-01 
1.000000e+00 1.000000e+00 1.909091e-01 
1.000000e+00 1.000000e+00 2.110101e-01 
1.000000e+00 1.000000e+00 2.311111e-01 
1.000000e+00 1.000000e+00 2.512121e-01 
1.000000e+00 1.000000e+00 2.713131e-01 
1.000000e+00 1.000000e+00 2.914141e-01 
1.000000e+00 1.000000e+00 3.115152e-01 
1.000000e+00 1.000000e+00 3.316162e-01 
1.000000e+00 1.000000e+00 3.517172e-01 
1.000000e+00 1.000000e+00 3.718182e-01 
1.000000e+00 1.000000e+00 3.919192e-01 
1.000000e+00 1.000000e+00 4.120202e-01 
1.000000e+00 1.000000e+00 4.321212e-01 
1.000000e+00 1.000000e+00 4.522222e-01 
1.000000e+00 1.000000e+00 4.723232e-01 
1.000000e+00 1.000000e+00 4.924242e-01 
1.000000e+00 1.000000e+00 5.125253e-01 
1.000000e+00 1.000000e+00 5.326263e-01 
1.000000e+00 1.000000e+00 5.527273e-01 
1.000000e+00 1.000000e+00 5.728283e-01 
1.000000e+00 1.000000e+00 5.929293e-01 
1.000000e+00 1.000000e+00 6.130303e-01 
1.000000e+00 1.000000e+00 6.331313e-01 
1.000000e+00 1.000000e+00 6.532323e-01 
1.000000e+00 1.000000e+00 6.733333e-01 
1.000000e+00 1.000000e+00 6.934343e-01 
1.000000e+00 1.000000e+00 7.135354e-01 
1.000000e+00 1.000000e+00 7.336364e-01 
1.000000e+00 1.000000e+00 7.537374e-01 
1.000000e+00 1.000000e+00 7.738384e-01 
1.000000e+00 1.000000e+00 7.939394e-01 
1.000000e+00 1.000000e+00 8.140404e-01 
1.000000e+00 1.000000e+00 8.341414e-01 
1.000000e+00 1.000000e+00 8.542424e-01 
1.000000e+00 1.000000e+00 8.743434e-01 
1.000000e+00 1.000000e+00 8.944444e-01 
1.000000e+00 1.000000e+00 9.145455e-01 
1.000000e+00 1.000000e+00 9.346465e-01 
1.000000e+00 1.000000e+00 9.547475e-01 
1.000000e+00 1.000000e+00 9.748485e-01 
1.000000e+00 1.000000e+00 9.949495e-01 
1.000000e+00 1.000000e+00 1.015051e+00 
1.000000e+00 1.000000e+00 1.035152e+00 
1.000000e+00 1.000000e+00 1.055253e+00 
1.000000e+00 1.000000e+00 1.075354e+00 
1.000000e+00 1.000000e+00 1.095455e+00 
1.000000e+00 1.000000e+00 1.115556e+00 
1.000000e+00 1.000000e+00 1.135657e+00 
1.000000e+00 1.000000e+00 1.155758e+00 
1.000000e+00 1.000000e+00 1.175859e+00 
1.000000e+00 1.000000e+00 1.195960e+00 
1.000000e+00 1.000000e+00 1.216061e+00 
1.000000e+00 1.000000e+00 1.236162e+00 
1.000000e+00 1.000000e+00 1.256263e+00 
1.000000e+00 1.000000e+00 1.276364e+00 
1.000000e+00 1.000000e+00 1.296465e+00 
1.000000e+00 1.000000e+00 1.316566e+00 
1.000000e+00 1.000000e+00 1.336667e+00 
1.000000e+00 1.000000e+00 1.356768e+00 
1.000000e+00 1.000000e+00 1.376869e+00 
1.000000e+00 1.000000e+00 1.396970e+00 
1.000000e+00 1.000000e+00 1.417071e+00 
1.000000e+00 1.000000e+00 1.437172e+00 
1.000000e+00 1.000000e+00 1.457273e+00 
1.000000e+00 1.000000e+00 1.477374e+00 
1.000000e+00 1.000000e+00 1.497475e+00 
1.000000e+00 1.000000e+00 1.517576e+00 
1.000000e+00 1.000000e+00 1.537677e+00 
1.000000e+00 1.000000e+00 1.557778e+00 
1.000000e+00 1.000000e+00 1.577879e+00 
1.000000e+00 1.000000e+00 1.597980e+00 
1.000000e+00 1.000000e+00 1.618081e+00 
1.000000e+00 1.000000e+00 1.638182e+00 
1.000000e+00 1.000000e+00 1.658283e+00 
1.000000e+00 1.000000e+00 1.678384e+00 
1.000000e+00 1.000000e+00 1.698485e+00 
1.000000e+00 1.000000e+00 1.718586e+00 
1.000000e+00 1.000000e+00 1.738687e+00 
1.000000e+00 1.000000e+00 1.758788e+00 
1.000000e+00 1.000000e+00 1.778889e+00 
1.000000e+00 1.000000e+00 1.798990e+00 
1.000000e+00 1.000000e+00 1.819091e+00 
1.000000e+00 1.000000e+00 1.839192e+00 
1.000000e+00 1.000000e+00 1.859293e+00 
1.000000e+00 1.000000e+00 1.879394e+00 
1.000000e+00 1.000000e+00 1.899495e+00 
1.000000e+00 1.000000e+00 1.919596e+00 
1.000000e+00 1.000000e+00 1.939697e+00 
1.000000e+00 1.000000e+00 1.959798e+00 
1.000000e+00 1.000000e+00 1.979899e+00 
1.000000e+00 1.000000e+00 2.000000e+00 
</DataArray>
</Points> 
<PointData Scalars='scalars'>
<DataArray type='Float32' NumberOfComponents='3' Name='B (vol int)' Format='ascii'> 
0.000000e+00 0.000000e+00 6.098398e+01 
0.000000e+00 0.000000e+00 5.748313e+01 
0.000000e+00 0.000000e+00 5.424520e+01 
0.000000e+00 0.000000e+00 5.124596e+01 
0.000000e+00 0.000000e+00 4.846381e+01 
0.000000e+00 0.000000e+00 4.587946e+01 
0.000000e+00 0.000000e+00 4.347564e+01 
0.000000e+00 0.000000e+00 4.123685e+01 
0.000000e+00 0.000000e+00 3.914919e+01 
0.000000e+00 0.000000e+00 3.720009e+01 
0.000000e+00 0.000000e+00 3.537827e+01 
0.000000e+00 0.000000e+00 3.367349e+01 
0.000000e+00 0.000000e+00 3.207650e+01 
0.000000e+00 0.000000e+00 3.057893e+01 
0.000000e+00 0.000000e+00 2.917315e+01 
0.000000e+00 0.000000e+00 2.785223e+01 
0.000000e+00 0.000000e+00 2.660987e+01 
0.000000e+00 0.000000e+00 2.544031e+01 
0.000000e+00 0.000000e+00 2.433830e+01 
0.000000e+00 0.000000e+00 2.329903e+01 
0.000000e+00 0.000000e+00 2.231810e+01 
0.000000e+00 0.000000e+00 2.139147e+01 
0.000000e+00 0.000000e+00 2.051543e+01 
0.000000e+00 0.000000e+00 1.968658e+01 
0.000000e+00 0.000000e+00 1.890179e+01 
0.000000e+00 0.000000e+00 1.815817e+01 
0.000000e+00 0.000000e+00 1.745304e+01 
0.000000e+00 0.000000e+00 1.678396e+01 
0.000000e+00 0.000000e+00 1.614864e+01 
0.000000e+00 0.000000e+00 1.554499e+01 
0.000000e+00 0.000000e+00 1.497105e+01 
0.000000e+00 0.000000e+00 1.442502e+01 
0.000000e+00 0.000000e+00 1.390523e+01 
0.000000e+00 0.000000e+00 1.341011e+01 
0.000000e+00 0.000000e+00 1.293823e+01 
0.000000e+00 0.000000e+00 1.248822e+01 
0.000000e+00 0.000000e+00 1.205885e+01 
0.000000e+00 0.000000e+00 1.164893e+01 
0.000000e+00 0.000000e+00 1.125739e+01 
0.000000e+00 0.000000e+00 1.088320e+01 
0.000000e+00 0.000000e+00 1.052541e+01 
0.000000e+00 0.000000e+00 1.018313e+01 
0.000000e+00 0.000000e+00 9.855538e+00 
0.000000e+00 0.000000e+00 9.541845e+00 
0.000000e+00 0.000000e+00 9.241325e+00 
0.000000e+00 0.000000e+00 8.953294e+00 
0.000000e+00 0.000000e+00 8.677108e+00 
0.000000e+00 0.000000e+00 8.412167e+00 
0.000000e+00 0.000000e+00 8.157903e+00 
0.000000e+00 0.000000e+00 7.913783e+00 
0.000000e+00 0.000000e+00 7.679308e+00 
0.000000e+00 0.000000e+00 7.454004e+00 
0.000000e+00 0.000000e+00 7.237429e+00 
0.000000e+00 0.000000e+00 7.029163e+00 
0.000000e+00 0.000000e+00 6.828812e+00 
0.000000e+00 0.000000e+00 6.636003e+00 
0.000000e+00 0.000000e+00 6.450385e+00 
0.000000e+00 0.000000e+00 6.271625e+00 
0.000000e+00 0.000000e+00 6.099411e+00 
0.000000e+00 0.000000e+00 5.933444e+00 
0.000000e+00 0.000000e+00 5.773444e+00 
0.000000e+00 0.000000e+00 5.619146e+00 
0.000000e+00 0.000000e+00 5.470297e+00 
0.000000e+00 0.000000e+00 5.326660e+00 
0.000000e+00 0.000000e+00 5.188007e+00 
0.000000e+00 0.000000e+00 5.054126e+00 
0.000000e+00 0.000000e+00 4.924811e+00 
0.000000e+00 0.000000e+00 4.799871e+00 
0.000000e+00 0.000000e+00 4.679121e+00 
0.000000e+00 0.000000e+00 4.562388e+00 
0.000000e+00 0.000000e+00 4.449506e+00 
0.000000e+00 0.000000e+00 4.340317e+00 
0.000000e+00 0.000000e+00 4.234672e+00 
0.000000e+00 0.000000e+00 4.132428e+00 
0.000000e+00 0.000000e+00 4.033449e+00 
0.000000e+00 0.000000e+00 3.937606e+00 
0.000000e+00 0.000000e+00 3.844775e+00 
0.000000e+00 0.000000e+00 3.754840e+00 
0.000000e+00 0.000000e+00 3.667688e+00 
0.000000e+00 0.000000e+00 3.583212e+00 
0.000000e+00 0.000000e+00 3.501311e+00 
0.000000e+00 0.000000e+00 3.421887e+00 
0.000000e+00 0.000000e+00 3.344847e+00 
0.000000e+00 0.000000e+00 3.270103e+00 
0.000000e+00 0.000000e+00 3.197569e+00 
0.000000e+00 0.000000e+00 3.127164e+00 
0.000000e+00 0.000000e+00 3.058812e+00 
0.000000e+00 0.000000e+00 2.992436e+00 
0.000000e+00 0.000000e+00 2.927968e+00 
0.000000e+00 0.000000e+00 2.865338e+00 
0.000000e+00 0.000000e+00 2.804482e+00 
0.000000e+00 0.000000e+00 2.745337e+00 
0.000000e+00 0.000000e+00 2.687843e+00 
0.000000e+00 0.000000e+00 2.631944e+00 
0.000000e+00 0.000000e+00 2.577584e+00 
0.000000e+00 0.000000e+00 2.524711e+00 
0.000000e+00 0.000000e+00 2.473274e+00 
0.000000e+00 0.000000e+00 2.423225e+00 
0.000000e+00 0.000000e+00 2.374517e+00 
0.000000e+00 0.000000e+00 2.327106e+00 
</DataArray>
<DataArray type='Float32' NumberOfComponents='3' Name='B (surf int)' Format='ascii'> 
5.119931e-15 5.122931e-16 5.899041e-06 
6.101471e-15 6.103589e-16 5.672061e-06 
6.623303e-15 6.623202e-16 5.414782e-06 
6.733889e-15 6.736369e-16 5.145156e-06 
6.565985e-15 6.566600e-16 4.877154e-06 
6.248093e-15 6.245892e-16 4.619288e-06 
5.869926e-15 5.874740e-16 4.375634e-06 
5.483331e-15 5.479615e-16 4.147469e-06 
5.112142e-15 5.113632e-16 3.934601e-06 
4.765635e-15 4.767792e-16 3.736180e-06 
4.446175e-15 4.447138e-16 3.551137e-06 
4.153899e-15 4.154776e-16 3.378379e-06 
3.886229e-15 3.887095e-16 3.216878e-06 
3.640419e-15 3.637337e-16 3.065694e-06 
3.414540e-15 3.415258e-16 2.923982e-06 
3.206884e-15 3.209216e-16 2.790983e-06 
3.015112e-15 3.017143e-16 2.666014e-06 
2.837687e-15 2.838631e-16 2.548461e-06 
2.673401e-15 2.676040e-16 2.437767e-06 
2.521356e-15 2.521284e-16 2.333431e-06 
2.379709e-15 2.378498e-16 2.234994e-06 
2.248270e-15 2.249957e-16 2.142039e-06 
2.125500e-15 2.126050e-16 2.054187e-06 
2.011724e-15 2.011778e-16 1.971087e-06 
1.904841e-15 1.908122e-16 1.892422e-06 
1.805385e-15 1.806585e-16 1.817896e-06 
1.712148e-15 1.713005e-16 1.747239e-06 
1.625049e-15 1.629508e-16 1.680204e-06 
1.543871e-15 1.546354e-16 1.616558e-06 
1.466952e-15 1.467729e-16 1.556091e-06 
1.395088e-15 1.397444e-16 1.498605e-06 
1.327603e-15 1.327388e-16 1.443919e-06 
1.264381e-15 1.267322e-16 1.391864e-06 
1.205051e-15 1.204773e-16 1.342283e-06 
1.148602e-15 1.146940e-16 1.295031e-06 
1.095574e-15 1.095924e-16 1.249972e-06 
1.045649e-15 1.047052e-16 1.206981e-06 
9.985959e-16 9.992342e-17 1.165940e-06 
9.539929e-16 9.561740e-17 1.126739e-06 
9.116265e-16 9.133129e-17 1.089276e-06 
8.721990e-16 8.753265e-17 1.053457e-06 
8.346868e-16 8.342822e-17 1.019192e-06 
7.992012e-16 8.016481e-17 9.863972e-07 
7.652574e-16 7.660459e-17 9.549949e-07 
7.335604e-16 7.346509e-17 9.249117e-07 
7.028501e-16 7.038527e-17 8.960792e-07 
6.739960e-16 6.770303e-17 8.684331e-07 
6.466406e-16 6.520745e-17 8.419128e-07 
6.209755e-16 6.247904e-17 8.164616e-07 
5.961694e-16 5.996522e-17 7.920262e-07 
5.727322e-16 5.770510e-17 7.685564e-07 
5.503700e-16 5.515643e-17 7.460049e-07 
5.291247e-16 5.344938e-17 7.243273e-07 
5.088951e-16 5.111894e-17 7.034816e-07 
4.897643e-16 4.925287e-17 6.834283e-07 
4.712430e-16 4.751926e-17 6.641301e-07 
4.539912e-16 4.570324e-17 6.455517e-07 
4.373145e-16 4.411157e-17 6.276599e-07 
4.210523e-16 4.236944e-17 6.104233e-07 
4.059027e-16 4.091521e-17 5.938122e-07 
3.913929e-16 3.962100e-17 5.777983e-07 
3.773260e-16 3.795765e-17 5.623552e-07 
3.643418e-16 3.659649e-17 5.474576e-07 
3.516593e-16 3.572843e-17 5.330817e-07 
3.392624e-16 3.455603e-17 5.192047e-07 
3.277413e-16 3.359932e-17 5.058053e-07 
3.167625e-16 3.225560e-17 4.928630e-07 
3.059534e-16 3.130746e-17 4.803586e-07 
2.956569e-16 3.015205e-17 4.682736e-07 
2.858791e-16 2.923371e-17 4.565907e-07 
2.766638e-16 2.795121e-17 4.452932e-07 
2.676212e-16 2.710094e-17 4.343654e-07 
2.588168e-16 2.585904e-17 4.237922e-07 
2.503393e-16 2.560872e-17 4.135595e-07 
2.426764e-16 2.486787e-17 4.036536e-07 
2.350022e-16 2.397112e-17 3.940615e-07 
2.273229e-16 2.351236e-17 3.847710e-07 
2.204555e-16 2.269052e-17 3.757703e-07 
2.137112e-16 2.193088e-17 3.670481e-07 
2.069981e-16 2.115398e-17 3.585938e-07 
2.008396e-16 2.021361e-17 3.503972e-07 
1.947324e-16 2.005551e-17 3.424485e-07 
1.887974e-16 1.940393e-17 3.347384e-07 
1.832523e-16 1.882363e-17 3.272581e-07 
1.778238e-16 1.833530e-17 3.199989e-07 
1.727889e-16 1.758773e-17 3.129529e-07 
1.675808e-16 1.707160e-17 3.061123e-07 
1.626158e-16 1.666234e-17 2.994696e-07 
1.580020e-16 1.622804e-17 2.930177e-07 
1.535156e-16 1.590877e-17 2.867498e-07 
1.495370e-16 1.499892e-17 2.806595e-07 
1.450645e-16 1.506002e-17 2.747404e-07 
1.410362e-16 1.435044e-17 2.689865e-07 
1.368113e-16 1.396743e-17 2.633923e-07 
1.333182e-16 1.368112e-17 2.579521e-07 
1.300556e-16 1.328834e-17 2.526607e-07 
1.259938e-16 1.306550e-17 2.475130e-07 
1.227490e-16 1.260848e-17 2.425042e-07 
1.194870e-16 1.238578e-17 2.376297e-07 
1.161051e-16 1.178712e-17 2.328849e-07 
</DataArray>
<DataArray type='Float32' NumberOfComponents='3' Name='B (analytical)' Format='ascii'> 
0.000000e+00 0.000000e+00 6.098398e+01 
0.000000e+00 0.000000e+00 5.748313e+01 
0.000000e+00 0.000000e+00 5.424520e+01 
0.000000e+00 0.000000e+00 5.124596e+01 
0.000000e+00 0.000000e+00 4.846381e+01 
0.000000e+00 0.000000e+00 4.587946e+01 
0.000000e+00 0.000000e+00 4.347564e+01 
0.000000e+00 0.000000e+00 4.123685e+01 
0.000000e+00 0.000000e+00 3.914919e+01 
0.000000e+00 0.000000e+00 3.720009e+01 
0.000000e+00 0.000000e+00 3.537827e+01 
0.000000e+00 0.000000e+00 3.367349e+01 
0.000000e+00 0.000000e+00 3.207650e+01 
0.000000e+00 0.000000e+00 3.057893e+01 
0.000000e+00 0.000000e+00 2.917315e+01 
0.000000e+00 0.000000e+00 2.785223e+01 
0.000000e+00 0.000000e+00 2.660987e+01 
0.000000e+00 0.000000e+00 2.544031e+01 
0.000000e+00 0.000000e+00 2.433830e+01 
0.000000e+00 0.000000e+00 2.329903e+01 
0.000000e+00 0.000000e+00 2.231810e+01 
0.000000e+00 0.000000e+00 2.139147e+01 
0.000000e+00 0.000000e+00 2.051543e+01 
0.000000e+00 0.000000e+00 1.968658e+01 
0.000000e+00 0.000000e+00 1.890179e+01 
0.000000e+00 0.000000e+00 1.815817e+01 
0.000000e+00 0.000000e+00 1.745304e+01 
0.000000e+00 0.000000e+00 1.678396e+01 
0.000000e+00 0.000000e+00 1.614864e+01 
0.000000e+00 0.000000e+00 1.554499e+01 
0.000000e+00 0.000000e+00 1.497105e+01 
0.000000e+00 0.000000e+00 1.442502e+01 
0.000000e+00 0.000000e+00 1.390523e+01 
0.000000e+00 0.000000e+00 1.341011e+01 
0.000000e+00 0.000000e+00 1.293823e+01 
0.000000e+00 0.000000e+00 1.248822e+01 
0.000000e+00 0.000000e+00 1.205885e+01 
0.000000e+00 0.000000e+00 1.164893e+01 
0.000000e+00 0.000000e+00 1.125739e+01 
0.000000e+00 0.000000e+00 1.088320e+01 
0.000000e+00 0.000000e+00 1.052541e+01 
0.000000e+00 0.000000e+00 1.018313e+01 
0.000000e+00 0.000000e+00 9.855538e+00 
0.000000e+00 0.000000e+00 9.541845e+00 
0.000000e+00 0.000000e+00 9.241325e+00 
0.000000e+00 0.000000e+00 8.953294e+00 
0.000000e+00 0.000000e+00 8.677108e+00 
0.000000e+00 0.000000e+00 8.412167e+00 
0.000000e+00 0.000000e+00 8.157903e+00 
0.000000e+00 0.000000e+00 7.913783e+00 
0.000000e+00 0.000000e+00 7.679308e+00 
0.000000e+00 0.000000e+00 7.454004e+00 
0.000000e+00 0.000000e+00 7.237429e+00 
0.000000e+00 0.000000e+00 7.029163e+00 
0.000000e+00 0.000000e+00 6.828812e+00 
0.000000e+00 0.000000e+00 6.636003e+00 
0.000000e+00 0.000000e+00 6.450385e+00 
0.000000e+00 0.000000e+00 6.271625e+00 
0.000000e+00 0.000000e+00 6.099411e+00 
0.000000e+00 0.000000e+00 5.933444e+00 
0.000000e+00 0.000000e+00 5.773444e+00 
0.000000e+00 0.000000e+00 5.619146e+00 
0.000000e+00 0.000000e+00 5.470297e+00 
0.000000e+00 0.000000e+00 5.326660e+00 
0.000000e+00 0.000000e+00 5.188007e+00 
0.000000e+00 0.000000e+00 5.054126e+00 
0.000000e+00 0.000000e+00 4.924811e+00 
0.000000e+00 0.000000e+00 4.799871e+00 
0.000000e+00 0.000000e+00 4.679121e+00 
0.000000e+00 0.000000e+00 4.562388e+00 
0.000000e+00 0.000000e+00 4.449506e+00 
0.000000e+00 0.000000e+00 4.340317e+00 
0.000000e+00 0.000000e+00 4.234672e+00 
0.000000e+00 0.000000e+00 4.132428e+00 
0.000000e+00 0.000000e+00 4.033449e+00 
0.000000e+00 0.000000e+00 3.937606e+00 
0.000000e+00 0.000000e+00 3.844775e+00 
0.000000e+00 0.000000e+00 3.754840e+00 
0.000000e+00 0.000000e+00 3.667688e+00 
0.000000e+00 0.000000e+00 3.583212e+00 
0.000000e+00 0.000000e+00 3.501311e+00 
0.000000e+00 0.000000e+00 3.421887e+00 
0.000000e+00 0.000000e+00 3.344847e+00 
0.000000e+00 0.000000e+00 3.270103e+00 
0.000000e+00 0.000000e+00 3.197569e+00 
0.000000e+00 0.000000e+00 3.127164e+00 
0.000000e+00 0.000000e+00 3.058812e+00 
0.000000e+00 0.000000e+00 2.992436e+00 
0.000000e+00 0.000000e+00 2.927968e+00 
0.000000e+00 0.000000e+00 2.865338e+00 
0.000000e+00 0.000000e+00 2.804482e+00 
0.000000e+00 0.000000e+00 2.745337e+00 
0.000000e+00 0.000000e+00 2.687843e+00 
0.000000e+00 0.000000e+00 2.631944e+00 
0.000000e+00 0.000000e+00 2.577584e+00 
0.000000e+00 0.000000e+00 2.524711e+00 
0.000000e+00 0.000000e+00 2.473274e+00 
0.000000e+00 0.000000e+00 2.423225e+00 
0.000000e+00 0.000000e+00 2.374517e+00 
0.000000e+00 0.000000e+00 2.327106e+00 
</DataArray>
</PointData>
<Cells>
<DataArray type='Int32' Name='connectivity' Format='ascii'> 
0 1 
1 2 
2 3 
3 4 
4 5 
5 6 
6 7 
7 8 
8 9 
9 10 
10 11 
11 12 
12 13 
13 14 
14 15 
15 16 
16 17 
17 18 
18 19 
19 20 
20 21 
21 22 
22 23 
23 24 
24 25 
25 26 
26 27 
27 28 
28 29 
29 30 
30 31 
31 32 
32 33 
33 34 
34 35 
35 36 
36 37 
37 38 
38 39 
39 40 
40 41 
41 42 
42 43 
43 44 
44 45 
45 46 
46 47 
47 48 
48 49 
49 50 
50 51 
51 52 
52 53 
53 54 
54 55 
55 56 
56 57 
57 58 
58 59 
59 60 
60 61 
61 62 
62 63 
63 64 
64 65 
65 66 
66 67 
67 68 
68 69 
69 70 
70 71 
71 72 
72 73 
73 74 
74 75 
75 76 
76 77 
77 78 
78 79 
79 80 
80 81 
81 82 
82 83 
83 84 
84 85 
85 86 
86 87 
87 88 
88 89 
89 90 
90 91 
91 92 
92 93 
93 94 
94 95 
95 96 
96 97 
97 98 
98 99 
</DataArray>
<DataArray type='Int32' Name='offsets' Format='ascii'> 
2 
4 
6 
8 
10 
12 
14 
16 
18 
20 
22 
24 
26 
28 
30 
32 
34 
36 
38 
40 
42 
44 
46 
48 
50 
52 
54 
56 
58 
60 
62 
64 
66 
68 
70 
72 
74 
76 
78 
80 
82 
84 
86 
88 
90 
92 
94 
96 
98 
100 
102 
104 
106 
108 
110 
112 
114 
116 
118 
120 
122 
124 
126 
128 
130 
132 
134 
136 
138 
140 
142 
144 
146 
148 
150 
152 
154 
156 
158 
160 
162 
164 
166 
168 
170 
172 
174 
176 
178 
180 
182 
184 
186 
188 
190 
192 
194 
196 
198 
</DataArray>
<DataArray type='Int32' Name='types' Format='ascii'>
3 
3 
3 
3 
3 
3 
3 
3 
3 
3 
3 
3 
3 
3 
3 
3 
3 
3 
3 
3 
3 
3 
3 
3 
3 
3 
3 
3 
3 
3 
3 
3 
3 
3 
3 
3 
3 
3 
3 
3 
3 
3 
3 
3 
3 
3 
3 
3 
3 
3 
3 
3 
3 
3 
3 
3 
3 
3 
3 
3 
3 
3 
3 
3 
3 
3 
3 
3 
3 
3 
3 
3 
3 
3 
3 
3 
3 
3 
3 
3 
3 
3 
3 
3 
3 
3 
3 
3 
3 
3 
3 
3 
3 
3 
3 
3 
3 
3 
3 
</DataArray>
</Cells>
</Piece>
</UnstructuredGrid>
</VTKFile>
